phonopy:
  version: 2.17.1
  frequency_unit_conversion_factor: 15.633302
  symmetry_tolerance: 1.00000e-05
  nac_unit_conversion_factor: 14.399652
  configuration:
    save_params: ".true."

physical_unit:
  atomic_mass: "AMU"
  length: "angstrom"
  force_constants: "eV/angstrom^2"

space_group:
  type: "Fm-3m"
  number: 225
  Hall_symbol: "-F 4 2 3"

primitive_matrix:
- [  0.000000000000000,  0.500000000000000,  0.500000000000000 ]
- [  0.500000000000000,  0.000000000000000,  0.500000000000000 ]
- [  0.500000000000000,  0.500000000000000,  0.000000000000000 ]

supercell_matrix:
- [   2,   0,   0 ]
- [   0,   2,   0 ]
- [   0,   0,   2 ]

primitive_cell:
  lattice:
  - [     0.000000000000000,     3.452344180000000,     3.452344180000000 ] # a
  - [     3.452344180000000,     0.000000000000000,     3.452344180000000 ] # b
  - [     3.452344180000000,     3.452344180000000,     0.000000000000000 ] # c
  points:
  - symbol: Cs # 1
    coordinates: [  0.000000000000000,  0.000000000000000,  0.000000000000000 ]
    mass: 132.905452
  - symbol: Cl # 2
    coordinates: [  0.500000000000000,  0.500000000000000,  0.500000000000000 ]
    mass: 35.453000
  reciprocal_lattice: # without 2pi
  - [    -0.144829128826895,     0.144829128826895,     0.144829128826895 ] # a*
  - [     0.144829128826895,    -0.144829128826895,     0.144829128826895 ] # b*
  - [     0.144829128826895,     0.144829128826895,    -0.144829128826895 ] # c*

unit_cell:
  lattice:
  - [     6.904688360000000,     0.000000000000000,     0.000000000000000 ] # a
  - [     0.000000000000000,     6.904688360000000,     0.000000000000000 ] # b
  - [     0.000000000000000,     0.000000000000000,     6.904688360000000 ] # c
  points:
  - symbol: Cs # 1
    coordinates: [  0.000000000000000,  0.000000000000000,  0.000000000000000 ]
    mass: 132.905452
    reduced_to: 1
  - symbol: Cs # 2
    coordinates: [  0.000000000000000,  0.500000000000000,  0.500000000000000 ]
    mass: 132.905452
    reduced_to: 1
  - symbol: Cs # 3
    coordinates: [  0.500000000000000,  0.000000000000000,  0.500000000000000 ]
    mass: 132.905452
    reduced_to: 1
  - symbol: Cs # 4
    coordinates: [  0.500000000000000,  0.500000000000000,  0.000000000000000 ]
    mass: 132.905452
    reduced_to: 1
  - symbol: Cl # 5
    coordinates: [  0.500000000000000,  0.000000000000000,  0.000000000000000 ]
    mass: 35.453000
    reduced_to: 5
  - symbol: Cl # 6
    coordinates: [  0.500000000000000,  0.500000000000000,  0.500000000000000 ]
    mass: 35.453000
    reduced_to: 5
  - symbol: Cl # 7
    coordinates: [  0.000000000000000,  0.000000000000000,  0.500000000000000 ]
    mass: 35.453000
    reduced_to: 5
  - symbol: Cl # 8
    coordinates: [  0.000000000000000,  0.500000000000000,  0.000000000000000 ]
    mass: 35.453000
    reduced_to: 5

supercell:
  lattice:
  - [    13.809376719999999,     0.000000000000000,     0.000000000000000 ] # a
  - [     0.000000000000000,    13.809376719999999,     0.000000000000000 ] # b
  - [     0.000000000000000,     0.000000000000000,    13.809376719999999 ] # c
  points:
  - symbol: Cs # 1
    coordinates: [  0.000000000000000,  0.000000000000000,  0.000000000000000 ]
    mass: 132.905452
    reduced_to: 1
  - symbol: Cs # 2
    coordinates: [  0.500000000000000,  0.000000000000000,  0.000000000000000 ]
    mass: 132.905452
    reduced_to: 1
  - symbol: Cs # 3
    coordinates: [  0.000000000000000,  0.500000000000000,  0.000000000000000 ]
    mass: 132.905452
    reduced_to: 1
  - symbol: Cs # 4
    coordinates: [  0.500000000000000,  0.500000000000000,  0.000000000000000 ]
    mass: 132.905452
    reduced_to: 1
  - symbol: Cs # 5
    coordinates: [  0.000000000000000,  0.000000000000000,  0.500000000000000 ]
    mass: 132.905452
    reduced_to: 1
  - symbol: Cs # 6
    coordinates: [  0.500000000000000,  0.000000000000000,  0.500000000000000 ]
    mass: 132.905452
    reduced_to: 1
  - symbol: Cs # 7
    coordinates: [  0.000000000000000,  0.500000000000000,  0.500000000000000 ]
    mass: 132.905452
    reduced_to: 1
  - symbol: Cs # 8
    coordinates: [  0.500000000000000,  0.500000000000000,  0.500000000000000 ]
    mass: 132.905452
    reduced_to: 1
  - symbol: Cs # 9
    coordinates: [  0.000000000000000,  0.250000000000000,  0.250000000000000 ]
    mass: 132.905452
    reduced_to: 1
  - symbol: Cs # 10
    coordinates: [  0.500000000000000,  0.250000000000000,  0.250000000000000 ]
    mass: 132.905452
    reduced_to: 1
  - symbol: Cs # 11
    coordinates: [  0.000000000000000,  0.750000000000000,  0.250000000000000 ]
    mass: 132.905452
    reduced_to: 1
  - symbol: Cs # 12
    coordinates: [  0.500000000000000,  0.750000000000000,  0.250000000000000 ]
    mass: 132.905452
    reduced_to: 1
  - symbol: Cs # 13
    coordinates: [  0.000000000000000,  0.250000000000000,  0.750000000000000 ]
    mass: 132.905452
    reduced_to: 1
  - symbol: Cs # 14
    coordinates: [  0.500000000000000,  0.250000000000000,  0.750000000000000 ]
    mass: 132.905452
    reduced_to: 1
  - symbol: Cs # 15
    coordinates: [  0.000000000000000,  0.750000000000000,  0.750000000000000 ]
    mass: 132.905452
    reduced_to: 1
  - symbol: Cs # 16
    coordinates: [  0.500000000000000,  0.750000000000000,  0.750000000000000 ]
    mass: 132.905452
    reduced_to: 1
  - symbol: Cs # 17
    coordinates: [  0.250000000000000,  0.000000000000000,  0.250000000000000 ]
    mass: 132.905452
    reduced_to: 1
  - symbol: Cs # 18
    coordinates: [  0.750000000000000,  0.000000000000000,  0.250000000000000 ]
    mass: 132.905452
    reduced_to: 1
  - symbol: Cs # 19
    coordinates: [  0.250000000000000,  0.500000000000000,  0.250000000000000 ]
    mass: 132.905452
    reduced_to: 1
  - symbol: Cs # 20
    coordinates: [  0.750000000000000,  0.500000000000000,  0.250000000000000 ]
    mass: 132.905452
    reduced_to: 1
  - symbol: Cs # 21
    coordinates: [  0.250000000000000,  0.000000000000000,  0.750000000000000 ]
    mass: 132.905452
    reduced_to: 1
  - symbol: Cs # 22
    coordinates: [  0.750000000000000,  0.000000000000000,  0.750000000000000 ]
    mass: 132.905452
    reduced_to: 1
  - symbol: Cs # 23
    coordinates: [  0.250000000000000,  0.500000000000000,  0.750000000000000 ]
    mass: 132.905452
    reduced_to: 1
  - symbol: Cs # 24
    coordinates: [  0.750000000000000,  0.500000000000000,  0.750000000000000 ]
    mass: 132.905452
    reduced_to: 1
  - symbol: Cs # 25
    coordinates: [  0.250000000000000,  0.250000000000000,  0.000000000000000 ]
    mass: 132.905452
    reduced_to: 1
  - symbol: Cs # 26
    coordinates: [  0.750000000000000,  0.250000000000000,  0.000000000000000 ]
    mass: 132.905452
    reduced_to: 1
  - symbol: Cs # 27
    coordinates: [  0.250000000000000,  0.750000000000000,  0.000000000000000 ]
    mass: 132.905452
    reduced_to: 1
  - symbol: Cs # 28
    coordinates: [  0.750000000000000,  0.750000000000000,  0.000000000000000 ]
    mass: 132.905452
    reduced_to: 1
  - symbol: Cs # 29
    coordinates: [  0.250000000000000,  0.250000000000000,  0.500000000000000 ]
    mass: 132.905452
    reduced_to: 1
  - symbol: Cs # 30
    coordinates: [  0.750000000000000,  0.250000000000000,  0.500000000000000 ]
    mass: 132.905452
    reduced_to: 1
  - symbol: Cs # 31
    coordinates: [  0.250000000000000,  0.750000000000000,  0.500000000000000 ]
    mass: 132.905452
    reduced_to: 1
  - symbol: Cs # 32
    coordinates: [  0.750000000000000,  0.750000000000000,  0.500000000000000 ]
    mass: 132.905452
    reduced_to: 1
  - symbol: Cl # 33
    coordinates: [  0.250000000000000,  0.000000000000000,  0.000000000000000 ]
    mass: 35.453000
    reduced_to: 33
  - symbol: Cl # 34
    coordinates: [  0.750000000000000,  0.000000000000000,  0.000000000000000 ]
    mass: 35.453000
    reduced_to: 33
  - symbol: Cl # 35
    coordinates: [  0.250000000000000,  0.500000000000000,  0.000000000000000 ]
    mass: 35.453000
    reduced_to: 33
  - symbol: Cl # 36
    coordinates: [  0.750000000000000,  0.500000000000000,  0.000000000000000 ]
    mass: 35.453000
    reduced_to: 33
  - symbol: Cl # 37
    coordinates: [  0.250000000000000,  0.000000000000000,  0.500000000000000 ]
    mass: 35.453000
    reduced_to: 33
  - symbol: Cl # 38
    coordinates: [  0.750000000000000,  0.000000000000000,  0.500000000000000 ]
    mass: 35.453000
    reduced_to: 33
  - symbol: Cl # 39
    coordinates: [  0.250000000000000,  0.500000000000000,  0.500000000000000 ]
    mass: 35.453000
    reduced_to: 33
  - symbol: Cl # 40
    coordinates: [  0.750000000000000,  0.500000000000000,  0.500000000000000 ]
    mass: 35.453000
    reduced_to: 33
  - symbol: Cl # 41
    coordinates: [  0.250000000000000,  0.250000000000000,  0.250000000000000 ]
    mass: 35.453000
    reduced_to: 33
  - symbol: Cl # 42
    coordinates: [  0.750000000000000,  0.250000000000000,  0.250000000000000 ]
    mass: 35.453000
    reduced_to: 33
  - symbol: Cl # 43
    coordinates: [  0.250000000000000,  0.750000000000000,  0.250000000000000 ]
    mass: 35.453000
    reduced_to: 33
  - symbol: Cl # 44
    coordinates: [  0.750000000000000,  0.750000000000000,  0.250000000000000 ]
    mass: 35.453000
    reduced_to: 33
  - symbol: Cl # 45
    coordinates: [  0.250000000000000,  0.250000000000000,  0.750000000000000 ]
    mass: 35.453000
    reduced_to: 33
  - symbol: Cl # 46
    coordinates: [  0.750000000000000,  0.250000000000000,  0.750000000000000 ]
    mass: 35.453000
    reduced_to: 33
  - symbol: Cl # 47
    coordinates: [  0.250000000000000,  0.750000000000000,  0.750000000000000 ]
    mass: 35.453000
    reduced_to: 33
  - symbol: Cl # 48
    coordinates: [  0.750000000000000,  0.750000000000000,  0.750000000000000 ]
    mass: 35.453000
    reduced_to: 33
  - symbol: Cl # 49
    coordinates: [  0.000000000000000,  0.000000000000000,  0.250000000000000 ]
    mass: 35.453000
    reduced_to: 33
  - symbol: Cl # 50
    coordinates: [  0.500000000000000,  0.000000000000000,  0.250000000000000 ]
    mass: 35.453000
    reduced_to: 33
  - symbol: Cl # 51
    coordinates: [  0.000000000000000,  0.500000000000000,  0.250000000000000 ]
    mass: 35.453000
    reduced_to: 33
  - symbol: Cl # 52
    coordinates: [  0.500000000000000,  0.500000000000000,  0.250000000000000 ]
    mass: 35.453000
    reduced_to: 33
  - symbol: Cl # 53
    coordinates: [  0.000000000000000,  0.000000000000000,  0.750000000000000 ]
    mass: 35.453000
    reduced_to: 33
  - symbol: Cl # 54
    coordinates: [  0.500000000000000,  0.000000000000000,  0.750000000000000 ]
    mass: 35.453000
    reduced_to: 33
  - symbol: Cl # 55
    coordinates: [  0.000000000000000,  0.500000000000000,  0.750000000000000 ]
    mass: 35.453000
    reduced_to: 33
  - symbol: Cl # 56
    coordinates: [  0.500000000000000,  0.500000000000000,  0.750000000000000 ]
    mass: 35.453000
    reduced_to: 33
  - symbol: Cl # 57
    coordinates: [  0.000000000000000,  0.250000000000000,  0.000000000000000 ]
    mass: 35.453000
    reduced_to: 33
  - symbol: Cl # 58
    coordinates: [  0.500000000000000,  0.250000000000000,  0.000000000000000 ]
    mass: 35.453000
    reduced_to: 33
  - symbol: Cl # 59
    coordinates: [  0.000000000000000,  0.750000000000000,  0.000000000000000 ]
    mass: 35.453000
    reduced_to: 33
  - symbol: Cl # 60
    coordinates: [  0.500000000000000,  0.750000000000000,  0.000000000000000 ]
    mass: 35.453000
    reduced_to: 33
  - symbol: Cl # 61
    coordinates: [  0.000000000000000,  0.250000000000000,  0.500000000000000 ]
    mass: 35.453000
    reduced_to: 33
  - symbol: Cl # 62
    coordinates: [  0.500000000000000,  0.250000000000000,  0.500000000000000 ]
    mass: 35.453000
    reduced_to: 33
  - symbol: Cl # 63
    coordinates: [  0.000000000000000,  0.750000000000000,  0.500000000000000 ]
    mass: 35.453000
    reduced_to: 33
  - symbol: Cl # 64
    coordinates: [  0.500000000000000,  0.750000000000000,  0.500000000000000 ]
    mass: 35.453000
    reduced_to: 33

born_effective_charge:
- # 1 (Cs)
  - [  1.254968960000000,  0.000000000000000,  0.000000000000000 ]
  - [ -0.000000000000000,  1.254968960000000, -0.000000000000000 ]
  - [  0.000000000000000,  0.000000000000000,  1.254968960000000 ]
- # 2 (Cl)
  - [ -1.254968960000000, -0.000000000000000, -0.000000000000000 ]
  - [  0.000000000000000, -1.254968960000000,  0.000000000000000 ]
  - [  0.000000000000000,  0.000000000000000, -1.254968960000000 ]

dielectric_constant:
  - [  2.510402430000000,  0.000000000000000,  0.000000000000000 ]
  - [  0.000000000000000,  2.510402430000000,  0.000000000000000 ]
  - [  0.000000000000000,  0.000000000000000,  2.510402430000000 ]

displacements:
- atom:    1
  displacement:
    [   0.0100000000000000,  0.0000000000000000,  0.0000000000000000 ]
  forces:
  - [  -0.0134220700000000,  0.0000000000000000,  0.0000000000000000 ]
  - [   0.0017374900000000,  0.0000000000000000,  0.0000000000000000 ]
  - [  -0.0001748800000000,  0.0000000000000000,  0.0000000000000000 ]
  - [   0.0002494200000000,  0.0000000000000000,  0.0000000000000000 ]
  - [  -0.0001748800000000,  0.0000000000000000,  0.0000000000000000 ]
  - [   0.0002494200000000,  0.0000000000000000,  0.0000000000000000 ]
  - [  -0.0001481200000000,  0.0000000000000000,  0.0000000000000000 ]
  - [   0.0001007200000000,  0.0000000000000000,  0.0000000000000000 ]
  - [  -0.0005672000000000, -0.0000021800000000, -0.0000021800000000 ]
  - [   0.0003244700000000,  0.0000001900000000,  0.0000001900000000 ]
  - [  -0.0005672000000000,  0.0000021800000000, -0.0000021800000000 ]
  - [   0.0003244700000000, -0.0000001900000000,  0.0000001900000000 ]
  - [  -0.0005672000000000, -0.0000021800000000,  0.0000021800000000 ]
  - [   0.0003244700000000,  0.0000001900000000, -0.0000001900000000 ]
  - [  -0.0005672000000000,  0.0000021800000000,  0.0000021800000000 ]
  - [   0.0003244700000000, -0.0000001900000000, -0.0000001900000000 ]
  - [   0.0005626800000000,  0.0000000000000000,  0.0014123000000000 ]
  - [   0.0005634200000000,  0.0000000000000000, -0.0014047900000000 ]
  - [  -0.0000262500000000,  0.0000000000000000,  0.0000728600000000 ]
  - [  -0.0000254000000000,  0.0000000000000000, -0.0000722800000000 ]
  - [   0.0005626800000000,  0.0000000000000000, -0.0014123000000000 ]
  - [   0.0005634200000000,  0.0000000000000000,  0.0014047900000000 ]
  - [  -0.0000262500000000,  0.0000000000000000, -0.0000728600000000 ]
  - [  -0.0000254000000000,  0.0000000000000000,  0.0000722800000000 ]
  - [   0.0005626800000000,  0.0014123000000000,  0.0000000000000000 ]
  - [   0.0005634200000000, -0.0014047900000000,  0.0000000000000000 ]
  - [   0.0005626800000000, -0.0014123000000000,  0.0000000000000000 ]
  - [   0.0005634200000000,  0.0014047900000000,  0.0000000000000000 ]
  - [  -0.0000262500000000,  0.0000728600000000,  0.0000000000000000 ]
  - [  -0.0000254000000000, -0.0000722800000000,  0.0000000000000000 ]
  - [  -0.0000262500000000, -0.0000728600000000,  0.0000000000000000 ]
  - [  -0.0000254000000000,  0.0000722800000000,  0.0000000000000000 ]
  - [   0.0043498900000000,  0.0000000000000000,  0.0000000000000000 ]
  - [   0.0040581600000000,  0.0000000000000000,  0.0000000000000000 ]
  - [  -0.0000177300000000,  0.0000000000000000,  0.0000000000000000 ]
  - [  -0.0000170200000000,  0.0000000000000000,  0.0000000000000000 ]
  - [  -0.0000177300000000,  0.0000000000000000,  0.0000000000000000 ]
  - [  -0.0000170200000000,  0.0000000000000000,  0.0000000000000000 ]
  - [  -0.0000184800000000,  0.0000000000000000,  0.0000000000000000 ]
  - [  -0.0000206500000000,  0.0000000000000000,  0.0000000000000000 ]
  - [  -0.0000889200000000, -0.0003018900000000, -0.0003018900000000 ]
  - [  -0.0000923700000000,  0.0002988900000000,  0.0002988900000000 ]
  - [  -0.0000889200000000,  0.0003018900000000, -0.0003018900000000 ]
  - [  -0.0000923700000000, -0.0002988900000000,  0.0002988900000000 ]
  - [  -0.0000889200000000, -0.0003018900000000,  0.0003018900000000 ]
  - [  -0.0000923700000000,  0.0002988900000000, -0.0002988900000000 ]
  - [  -0.0000889200000000,  0.0003018900000000,  0.0003018900000000 ]
  - [  -0.0000923700000000, -0.0002988900000000, -0.0002988900000000 ]
  - [   0.0008810500000000,  0.0000000000000000, -0.0000066400000000 ]
  - [  -0.0006558200000000,  0.0000000000000000, -0.0000011000000000 ]
  - [   0.0001323500000000,  0.0000000000000000, -0.0000004500000000 ]
  - [  -0.0001871200000000,  0.0000000000000000, -0.0000009300000000 ]
  - [   0.0008810500000000,  0.0000000000000000,  0.0000066400000000 ]
  - [  -0.0006558200000000,  0.0000000000000000,  0.0000011000000000 ]
  - [   0.0001323500000000,  0.0000000000000000,  0.0000004500000000 ]
  - [  -0.0001871200000000,  0.0000000000000000,  0.0000009300000000 ]
  - [   0.0008810500000000, -0.0000066400000000,  0.0000000000000000 ]
  - [  -0.0006558200000000, -0.0000011000000000,  0.0000000000000000 ]
  - [   0.0008810500000000,  0.0000066400000000,  0.0000000000000000 ]
  - [  -0.0006558200000000,  0.0000011000000000,  0.0000000000000000 ]
  - [   0.0001323500000000, -0.0000004500000000,  0.0000000000000000 ]
  - [  -0.0001871200000000, -0.0000009300000000,  0.0000000000000000 ]
  - [   0.0001323500000000,  0.0000004500000000,  0.0000000000000000 ]
  - [  -0.0001871200000000,  0.0000009300000000,  0.0000000000000000 ]
- atom:   33
  displacement:
    [   0.0100000000000000,  0.0000000000000000,  0.0000000000000000 ]
  forces:
  - [   0.0040890900000000,  0.0000000000000000,  0.0000000000000000 ]
  - [   0.0043665300000000,  0.0000000000000000,  0.0000000000000000 ]
  - [   0.0000050100000000,  0.0000000000000000,  0.0000000000000000 ]
  - [   0.0000087100000000,  0.0000000000000000,  0.0000000000000000 ]
  - [   0.0000050100000000,  0.0000000000000000,  0.0000000000000000 ]
  - [   0.0000087100000000,  0.0000000000000000,  0.0000000000000000 ]
  - [   0.0000004200000000,  0.0000000000000000,  0.0000000000000000 ]
  - [   0.0000015300000000,  0.0000000000000000,  0.0000000000000000 ]
  - [  -0.0000680600000000,  0.0003000400000000,  0.0003000400000000 ]
  - [  -0.0000659500000000, -0.0003026900000000, -0.0003026900000000 ]
  - [  -0.0000680600000000, -0.0003000400000000,  0.0003000400000000 ]
  - [  -0.0000659500000000,  0.0003026900000000, -0.0003026900000000 ]
  - [  -0.0000680600000000,  0.0003000400000000, -0.0003000400000000 ]
  - [  -0.0000659500000000, -0.0003026900000000,  0.0003026900000000 ]
  - [  -0.0000680600000000, -0.0003000400000000, -0.0003000400000000 ]
  - [  -0.0000659500000000,  0.0003026900000000,  0.0003026900000000 ]
  - [   0.0009096700000000,  0.0000000000000000, -0.0000061500000000 ]
  - [  -0.0006321500000000,  0.0000000000000000, -0.0000035400000000 ]
  - [   0.0001610800000000,  0.0000000000000000,  0.0000009500000000 ]
  - [  -0.0001641600000000,  0.0000000000000000, -0.0000003100000000 ]
  - [   0.0009096700000000,  0.0000000000000000,  0.0000061500000000 ]
  - [  -0.0006321500000000,  0.0000000000000000,  0.0000035400000000 ]
  - [   0.0001610800000000,  0.0000000000000000, -0.0000009500000000 ]
  - [  -0.0001641600000000,  0.0000000000000000,  0.0000003100000000 ]
  - [   0.0009096700000000, -0.0000061500000000,  0.0000000000000000 ]
  - [  -0.0006321500000000, -0.0000035400000000,  0.0000000000000000 ]
  - [   0.0009096700000000,  0.0000061500000000,  0.0000000000000000 ]
  - [  -0.0006321500000000,  0.0000035400000000,  0.0000000000000000 ]
  - [   0.0001610800000000,  0.0000009500000000,  0.0000000000000000 ]
  - [  -0.0001641600000000, -0.0000003100000000,  0.0000000000000000 ]
  - [   0.0001610800000000, -0.0000009500000000,  0.0000000000000000 ]
  - [  -0.0001641600000000,  0.0000003100000000,  0.0000000000000000 ]
  - [  -0.0136856700000000,  0.0000000000000000,  0.0000000000000000 ]
  - [   0.0027197400000000,  0.0000000000000000,  0.0000000000000000 ]
  - [  -0.0000434800000000,  0.0000000000000000,  0.0000000000000000 ]
  - [   0.0002449600000000,  0.0000000000000000,  0.0000000000000000 ]
  - [  -0.0000434800000000,  0.0000000000000000,  0.0000000000000000 ]
  - [   0.0002449600000000,  0.0000000000000000,  0.0000000000000000 ]
  - [  -0.0000919200000000,  0.0000000000000000,  0.0000000000000000 ]
  - [   0.0000966400000000,  0.0000000000000000,  0.0000000000000000 ]
  - [  -0.0003893500000000, -0.0000018600000000, -0.0000018600000000 ]
  - [   0.0002746200000000,  0.0000003500000000,  0.0000003500000000 ]
  - [  -0.0003893500000000,  0.0000018600000000, -0.0000018600000000 ]
  - [   0.0002746200000000, -0.0000003500000000,  0.0000003500000000 ]
  - [  -0.0003893500000000, -0.0000018600000000,  0.0000018600000000 ]
  - [   0.0002746200000000,  0.0000003500000000, -0.0000003500000000 ]
  - [  -0.0003893500000000,  0.0000018600000000,  0.0000018600000000 ]
  - [   0.0002746200000000, -0.0000003500000000, -0.0000003500000000 ]
  - [   0.0002507200000000,  0.0000000000000000, -0.0009558700000000 ]
  - [   0.0002451600000000,  0.0000000000000000,  0.0009646300000000 ]
  - [  -0.0000011300000000,  0.0000000000000000, -0.0000715100000000 ]
  - [  -0.0000021400000000,  0.0000000000000000,  0.0000724100000000 ]
  - [   0.0002507200000000,  0.0000000000000000,  0.0009558700000000 ]
  - [   0.0002451600000000,  0.0000000000000000, -0.0009646300000000 ]
  - [  -0.0000011300000000,  0.0000000000000000,  0.0000715100000000 ]
  - [  -0.0000021400000000,  0.0000000000000000, -0.0000724100000000 ]
  - [   0.0002507200000000, -0.0009558700000000,  0.0000000000000000 ]
  - [   0.0002451600000000,  0.0009646300000000,  0.0000000000000000 ]
  - [   0.0002507200000000,  0.0009558700000000,  0.0000000000000000 ]
  - [   0.0002451600000000, -0.0009646300000000,  0.0000000000000000 ]
  - [  -0.0000011300000000, -0.0000715100000000,  0.0000000000000000 ]
  - [  -0.0000021400000000,  0.0000724100000000,  0.0000000000000000 ]
  - [  -0.0000011300000000,  0.0000715100000000,  0.0000000000000000 ]
  - [  -0.0000021400000000, -0.0000724100000000,  0.0000000000000000 ]
